TITLE = "VolumeData"
VARIABLES = "x" "y" "z"  "A"  "B"  "C" 
ZONE T= my_zone, SolutionTime = 0, DATAPACKING=Block, ZONETYPE=FEBRICK Nodes= 3362 Elements= 1600 VarLocation=([4-6]=CellCentered)-20
-19.9434
-20
-19.9434
-19.0397
-18.9858
-19.0397
-18.9858
-18.0329
-17.9818
-18.0329
-17.9818
-16.9893
-16.941
-16.9893
-16.941
-15.9198
-15.8746
-15.9198
-15.8746
-14.8371
-14.7949
-14.8371
-14.7949
-13.7539
-13.7148
-13.7539
-13.7148
-12.6835
-12.6473
-12.6835
-12.6473
-11.6381
-11.6049
-11.6381
-11.6049
-10.6292
-10.5987
-10.6292
-10.5987
-9.66618
-9.63844
-9.66618
-9.63844
-8.75695
-8.73175
-8.75695
-8.73175
-7.90714
-7.88432
-7.90714
-7.88432
-7.12039
-7.09977
-7.12039
-7.09977
-6.3984
-6.3798
-6.3984
-6.37979
-5.74116
-5.7244
-5.74116
-5.7244
-5.14726
-5.13216
-5.14726
-5.13216
-4.61415
-4.60053
-4.61415
-4.60053
-4.13845
-4.12617
-4.13845
-4.12617
-3.71625
-3.70514
-3.71625
-3.70514
-3.34328
-3.33321
-3.34328
-3.33321
-3.01519
-3.00604
-3.01519
-3.00604
-2.72763
-2.71928
-2.72763
-2.71928
-2.47641
-2.46877
-2.47641
-2.46877
-2.25756
-2.25053
-2.25756
-2.25052
-2.06736
-2.06086
-2.06736
-2.06086
-1.90243
-1.89639
-1.90243
-1.89639
-1.75967
-1.75403
-1.75967
-1.75403
-1.6363
-1.631
-1.6363
-1.631
-1.52983
-1.52483
-1.52983
-1.52483
-1.43805
-1.43331
-1.43805
-1.43331
-1.35903
-1.35451
-1.35903
-1.35451
-1.29104
-1.28671
-1.29104
-1.28671
-1.2326
-1.22843
-1.2326
-1.22843
-1.18239
-1.17836
-1.18239
-1.17836
-1.13928
-1.13537
-1.13928
-1.13537
-1.10228
-1.09848
-1.10228
-1.09848
-1.07054
-1.06683
-1.07054
-1.06683
-1.04333
-1.03969
-1.04333
-1.03969
-1.02
-1.01642
-1.02
-1.01642
-1
-0.996484
-1
-0.996484
-19.7738
-19.7738
-18.8243
-18.8243
-17.8287
-17.8287
-16.7967
-16.7967
-15.7392
-15.7392
-14.6685
-14.6685
-13.5975
-13.5975
-12.539
-12.539
-11.5053
-11.5053
-10.5076
-10.5076
-9.55539
-9.55539
-8.65631
-8.65631
-7.81599
-7.81599
-7.03803
-7.03802
-6.32409
-6.32409
-5.6742
-5.67419
-5.08693
-5.08692
-4.55976
-4.55976
-4.08938
-4.08938
-3.67188
-3.67188
-3.30308
-3.30308
-2.97865
-2.97865
-2.6943
-2.6943
-2.44589
-2.44589
-2.22948
-2.22948
-2.04141
-2.04141
-1.87832
-1.87832
-1.73715
-1.73715
-1.61515
-1.61515
-1.50987
-1.50987
-1.41912
-1.41912
-1.34098
-1.34098
-1.27375
-1.27375
-1.21596
-1.21596
-1.16631
-1.16631
-1.12368
-1.12368
-1.0871
-1.0871
-1.05572
-1.05572
-1.02881
-1.02881
-1.00573
-1.00573
-0.985962
-0.985962
-19.4924
-19.4923
-18.5561
-18.5561
-17.5746
-17.5746
-16.5571
-16.5571
-15.5144
-15.5144
-14.4588
-14.4588
-13.4028
-13.4028
-12.3592
-12.3592
-11.3401
-11.3401
-10.3564
-10.3563
-9.41751
-9.4175
-8.53106
-8.53106
-7.70255
-7.70255
-6.93552
-6.93552
-6.23162
-6.23162
-5.59085
-5.59085
-5.01184
-5.01184
-4.49208
-4.49208
-4.02831
-4.02831
-3.61668
-3.61668
-3.25306
-3.25306
-2.93319
-2.93319
-2.65284
-2.65284
-2.40792
-2.40792
-2.19455
-2.19455
-2.00912
-2.00912
-1.84832
-1.84832
-1.70914
-1.70914
-1.58886
-1.58886
-1.48506
-1.48505
-1.39558
-1.39558
-1.31854
-1.31854
-1.25225
-1.25225
-1.19527
-1.19527
-1.14632
-1.14632
-1.10429
-1.10429
-1.06822
-1.06822
-1.03728
-1.03728
-1.01075
-1.01075
-0.988002
-0.988002
-0.968507
-0.968507
-19.1005
-19.1005
-18.1828
-18.1828
-17.2208
-17.2208
-16.2234
-16.2234
-15.2015
-15.2015
-14.1668
-14.1668
-13.1318
-13.1318
-12.1089
-12.1089
-11.11
-11.11
-10.1458
-10.1458
-9.22558
-9.22557
-8.35672
-8.35672
-7.54465
-7.54465
-6.79284
-6.79284
-6.10291
-6.10291
-5.47486
-5.47486
-4.90734
-4.90733
-4.3979
-4.3979
-3.94332
-3.94332
-3.53987
-3.53986
-3.18346
-3.18346
-2.86994
-2.86994
-2.59515
-2.59515
-2.35509
-2.35509
-2.14595
-2.14595
-1.96421
-1.96421
-1.8066
-1.8066
-1.67018
-1.67018
-1.55228
-1.55228
-1.45054
-1.45054
-1.36284
-1.36284
-1.28733
-1.28733
-1.22236
-1.22236
-1.16651
-1.16651
-1.11853
-1.11853
-1.07733
-1.07733
-1.04198
-1.04198
-1.01165
-1.01165
-0.985645
-0.985645
-0.96335
-0.96335
-0.944242
-0.944242
-18.6005
-18.6005
-17.7066
-17.7066
-16.7694
-16.7694
-15.7978
-15.7978
-14.8023
-14.8023
-13.7943
-13.7943
-12.786
-12.786
-11.7895
-11.7895
-10.8164
-10.8164
-9.87715
-9.87715
-8.98071
-8.98071
-8.1343
-8.1343
-7.34322
-7.34322
-6.61083
-6.61083
-5.93872
-5.93872
-5.3269
-5.3269
-4.77404
-4.77404
-4.27776
-4.27776
-3.83493
-3.83493
-3.4419
-3.4419
-3.0947
-3.0947
-2.78928
-2.78928
-2.52159
-2.52159
-2.28773
-2.28773
-2.084
-2.084
-1.90695
-1.90695
-1.75341
-1.75341
-1.62052
-1.62052
-1.50567
-1.50567
-1.40655
-1.40655
-1.32112
-1.32112
-1.24756
-1.24756
-1.18427
-1.18427
-1.12986
-1.12986
-1.08312
-1.08312
-1.04299
-1.04299
-1.00855
-1.00855
-0.979006
-0.979006
-0.953671
-0.953671
-0.931952
-0.931952
-0.913337
-0.913337
-17.9952
-17.9952
-17.1299
-17.1299
-16.2228
-16.2228
-15.2825
-15.2825
-14.3189
-14.3189
-13.3433
-13.3433
-12.3674
-12.3674
-11.4029
-11.4029
-10.4611
-10.4611
-9.55197
-9.55197
-8.68432
-8.68431
-7.86509
-7.86509
-7.09941
-7.09941
-6.39054
-6.39054
-5.74002
-5.74002
-5.14784
-5.14784
-4.61273
-4.61273
-4.13239
-4.13239
-3.70379
-3.70379
-3.32337
-3.32337
-2.98733
-2.98733
-2.69171
-2.69171
-2.43262
-2.43262
-2.20627
-2.20627
-2.00908
-2.00908
-1.83771
-1.83771
-1.68911
-1.68911
-1.56048
-1.56048
-1.44932
-1.44932
-1.35339
-1.35339
-1.2707
-1.2707
-1.1995
-1.1995
-1.13824
-1.13824
-1.08558
-1.08558
-1.04034
-1.04034
-1.0015
-1.0015
-0.968166
-0.968166
-0.939571
-0.93957
-0.915049
-0.915049
-0.894027
-0.894027
-0.876011
-0.876011
-17.288
-17.288
-16.4563
-16.4563
-15.5844
-15.5843
-14.6804
-14.6804
-13.7542
-13.7542
-12.8165
-12.8165
-11.8784
-11.8784
-10.9513
-10.9513
-10.046
-10.046
-9.17211
-9.17211
-8.3381
-8.33809
-7.55063
-7.55063
-6.81464
-6.81463
-6.13325
-6.13325
-5.50795
-5.50795
-4.93874
-4.93873
-4.42437
-4.42437
-3.96266
-3.96265
-3.55067
-3.55066
-3.185
-3.185
-2.86198
-2.86198
-2.57783
-2.57783
-2.32878
-2.32878
-2.11121
-2.11121
-1.92166
-1.92166
-1.75694
-1.75694
-1.6141
-1.6141
-1.49046
-1.49046
-1.38361
-1.38361
-1.29139
-1.29139
-1.21191
-1.21191
-1.14347
-1.14347
-1.08459
-1.08459
-1.03397
-1.03397
-0.990486
-0.990486
-0.95315
-0.953149
-0.921108
-0.921107
-0.893621
-0.89362
-0.87005
-0.870049
-0.849843
-0.849843
-0.832525
-0.832525
-16.4829
-16.4829
-15.6894
-15.6894
-14.8575
-14.8575
-13.9951
-13.9951
-13.1115
-13.1115
-12.2168
-12.2168
-11.3218
-11.3218
-10.4373
-10.4373
-9.57349
-9.57349
-8.73977
-8.73977
-7.94405
-7.94405
-7.19275
-7.19275
-6.49056
-6.49056
-5.84047
-5.84047
-5.24389
-5.24389
-4.70081
-4.70081
-4.21007
-4.21007
-3.76956
-3.76956
-3.37649
-3.37649
-3.02762
-3.02762
-2.71944
-2.71944
-2.44833
-2.44833
-2.21073
-2.21073
-2.00314
-2.00314
-1.8223
-1.8223
-1.66515
-1.66515
-1.52886
-1.52886
-1.4109
-1.4109
-1.30896
-1.30896
-1.22098
-1.22098
-1.14515
-1.14515
-1.07985
-1.07985
-1.02367
-1.02367
-0.97538
-0.97538
-0.933892
-0.933892
-0.89827
-0.89827
-0.867699
-0.867699
-0.841475
-0.841474
-0.818986
-0.818986
-0.799708
-0.799707
-0.783185
-0.783185
-15.5845
-15.5845
-14.8336
-14.8336
-14.0464
-14.0464
-13.2304
-13.2304
-12.3942
-12.3942
-11.5476
-11.5476
-10.7007
-10.7007
-9.86369
-9.86369
-9.04633
-9.04633
-8.2574
-8.2574
-7.50445
-7.50444
-6.79351
-6.79351
-6.12905
-6.12905
-5.51389
-5.51389
-4.94936
-4.94936
-4.43547
-4.43546
-3.97109
-3.97109
-3.55425
-3.55425
-3.1823
-3.1823
-2.85218
-2.85218
-2.56055
-2.56055
-2.30402
-2.30402
-2.07918
-2.07918
-1.88275
-1.88275
-1.71162
-1.71162
-1.56291
-1.56291
-1.43395
-1.43395
-1.32233
-1.32233
-1.22586
-1.22586
-1.14261
-1.14261
-1.07085
-1.07085
-1.00906
-1.00906
-0.955904
-0.955904
-0.910206
-0.910206
-0.870948
-0.870947
-0.83724
-0.837239
-0.808312
-0.808311
-0.783496
-0.783496
-0.762216
-0.762216
-0.743973
-0.743973
-0.728338
-0.728338
-14.5978
-14.5978
-13.8938
-13.8938
-13.1557
-13.1557
-12.3906
-12.3906
-11.6066
-11.6066
-10.8127
-10.8127
-10.0187
-10.0187
-9.23389
-9.23389
-8.46752
-8.46752
-7.7278
-7.7278
-7.02181
-7.02181
-6.35522
-6.35522
-5.7322
-5.7322
-5.15541
-5.15541
-4.6261
-4.6261
-4.14426
-4.14426
-3.70885
-3.70885
-3.31801
-3.31801
-2.96927
-2.96927
-2.65973
-2.65973
-2.3863
-2.3863
-2.14576
-2.14576
-1.93495
-1.93495
-1.75077
-1.75077
-1.59032
-1.59032
-1.45089
-1.45089
-1.32997
-1.32997
-1.22531
-1.22531
-1.13486
-1.13486
-1.0568
-1.0568
-0.98952
-0.989519
-0.931584
-0.931584
-0.881742
-0.881741
-0.838894
-0.838894
-0.802084
-0.802084
-0.770479
-0.770478
-0.743355
-0.743355
-0.720088
-0.720087
-0.700135
-0.700135
-0.68303
-0.68303
-0.668371
-0.66837
-13.4522
-13.4522
-12.8032
-12.8032
-12.1228
-12.1228
-11.4174
-11.4174
-10.6947
-10.6947
-9.9629
-9.96288
-9.23088
-9.23086
-8.50743
-8.50741
-7.80094
-7.80093
-7.11902
-7.11901
-6.4682
-6.46819
-5.8537
-5.85369
-5.27937
-5.27936
-4.74765
-4.74764
-4.2597
-4.25969
-3.81551
-3.81551
-3.41413
-3.41413
-3.05383
-3.05383
-2.73234
-2.73233
-2.44699
-2.44699
-2.19492
-2.19492
-1.97318
-1.97318
-1.77884
-1.77884
-1.60906
-1.60906
-1.46115
-1.46114
-1.33261
-1.3326
-1.22114
-1.22114
-1.12465
-1.12465
-1.04127
-1.04127
-0.969316
-0.969316
-0.907292
-0.907291
-0.853884
-0.853883
-0.807936
-0.807936
-0.768437
-0.768437
-0.734503
-0.734503
-0.705367
-0.705367
-0.680363
-0.680363
-0.658914
-0.658914
-0.64052
-0.640521
-0.624752
-0.624752
-0.611238
-0.611238
-12.2196
-12.2196
-11.6299
-11.6298
-11.0115
-11.0115
-10.3706
-10.3705
-9.71378
-9.71375
-9.0488
-9.04877
-8.38359
-8.38357
-7.72618
-7.72615
-7.08417
-7.08415
-6.4645
-6.46448
-5.87308
-5.87306
-5.31467
-5.31466
-4.79277
-4.79275
-4.30958
-4.30957
-3.86617
-3.86616
-3.46252
-3.46251
-3.09778
-3.09777
-2.77037
-2.77036
-2.47821
-2.47821
-2.21891
-2.21891
-1.98986
-1.98985
-1.78836
-1.78835
-1.61175
-1.61175
-1.45747
-1.45746
-1.32306
-1.32305
-1.20625
-1.20625
-1.10495
-1.10495
-1.01728
-1.01728
-0.941508
-0.941507
-0.876118
-0.876118
-0.819755
-0.819755
-0.771222
-0.771222
-0.729468
-0.729469
-0.693574
-0.693575
-0.662738
-0.662739
-0.636262
-0.636263
-0.61354
-0.613541
-0.594048
-0.594049
-0.577334
-0.577335
-0.563005
-0.563006
-0.550724
-0.550726
-10.908
-10.908
-10.3813
-10.3813
-9.82915
-9.8291
-9.25673
-9.25668
-8.67019
-8.67015
-8.07632
-8.07629
-7.48227
-7.48223
-6.89517
-6.89513
-6.32183
-6.3218
-5.76843
-5.7684
-5.24027
-5.24025
-4.74159
-4.74156
-4.2755
-4.27548
-3.84399
-3.84397
-3.448
-3.44799
-3.08753
-3.08752
-2.7618
-2.76179
-2.4694
-2.46939
-2.2085
-2.20849
-1.97693
-1.97693
-1.77237
-1.77237
-1.59243
-1.59242
-1.43471
-1.43471
-1.29693
-1.29692
-1.17689
-1.17689
-1.07258
-1.07258
-0.982117
-0.982116
-0.903817
-0.903817
-0.836151
-0.836151
-0.777756
-0.777756
-0.727421
-0.727422
-0.684079
-0.684079
-0.646791
-0.646792
-0.614736
-0.614737
-0.587198
-0.587199
-0.563553
-0.563555
-0.543262
-0.543263
-0.525855
-0.525856
-0.510928
-0.51093
-0.498131
-0.498133
-0.487164
-0.487166
-9.52588
-9.5258
-9.0657
-9.06562
-8.58325
-8.58318
-8.08311
-8.08304
-7.57063
-7.57057
-7.05176
-7.0517
-6.53272
-6.53266
-6.01975
-6.0197
-5.51881
-5.51876
-5.03529
-5.03525
-4.57382
-4.57379
-4.13811
-4.13808
-3.73087
-3.73085
-3.35386
-3.35383
-3.00787
-3.00785
-2.69292
-2.6929
-2.40832
-2.4083
-2.15284
-2.15283
-1.92489
-1.92487
-1.72256
-1.72255
-1.54383
-1.54382
-1.38661
-1.3866
-1.2488
-1.2488
-1.12842
-1.12842
-1.02354
-1.02354
-0.932399
-0.932398
-0.853363
-0.853362
-0.78495
-0.78495
-0.725829
-0.725829
-0.674807
-0.674808
-0.630828
-0.630829
-0.592959
-0.59296
-0.560379
-0.560381
-0.532372
-0.532374
-0.508311
-0.508314
-0.487652
-0.487655
-0.469923
-0.469926
-0.454714
-0.454717
-0.441672
-0.441675
-0.430492
-0.430495
-0.420909
-0.420913
-8.08215
-8.08206
-7.69147
-7.69138
-7.28189
-7.2818
-6.85728
-6.8572
-6.42221
-6.42213
-5.9817
-5.98163
-5.54105
-5.54099
-5.10556
-5.1055
-4.68028
-4.68022
-4.26979
-4.26974
-3.87801
-3.87797
-3.50811
-3.50807
-3.16238
-3.16235
-2.8423
-2.84227
-2.54857
-2.54855
-2.28119
-2.28117
-2.03957
-2.03955
-1.82268
-1.82267
-1.62915
-1.62914
-1.45738
-1.45737
-1.30565
-1.30564
-1.17217
-1.17216
-1.05518
-1.05518
-0.952978
-0.952975
-0.863941
-0.863939
-0.786565
-0.786563
-0.719465
-0.719464
-0.661385
-0.661385
-0.611193
-0.611193
-0.567877
-0.567878
-0.53054
-0.530542
-0.49839
-0.498393
-0.470731
-0.470734
-0.446954
-0.446957
-0.426527
-0.426531
-0.408989
-0.408992
-0.393937
-0.393941
-0.381025
-0.381029
-0.369953
-0.369957
-0.360461
-0.360465
-0.352326
-0.35233
-6.58617
-6.58605
-6.26753
-6.26742
-5.93348
-5.93337
-5.58717
-5.58707
-5.23233
-5.23224
-4.87306
-4.87297
-4.51367
-4.51359
-4.15848
-4.15841
-3.81163
-3.81156
-3.47684
-3.47678
-3.15731
-3.15726
-2.85562
-2.85557
-2.57365
-2.57361
-2.3126
-2.31256
-2.07303
-2.073
-1.85496
-1.85493
-1.65789
-1.65787
-1.481
-1.48098
-1.32316
-1.32315
-1.18307
-1.18306
-1.05931
-1.0593
-0.950451
-0.950443
-0.855037
-0.855031
-0.77168
-0.771676
-0.699062
-0.699059
-0.635955
-0.635953
-0.581229
-0.581228
-0.533859
-0.533859
-0.492923
-0.492924
-0.457595
-0.457597
-0.427144
-0.427146
-0.400923
-0.400925
-0.378364
-0.378367
-0.358972
-0.358975
-0.342312
-0.342316
-0.328008
-0.328012
-0.315732
-0.315736
-0.305201
-0.305205
-0.29617
-0.296175
-0.288429
-0.288434
-0.281794
-0.281799
-5.04759
-5.04745
-4.80308
-4.80294
-4.54673
-4.5466
-4.28098
-4.28086
-4.00868
-4.00857
-3.73298
-3.73288
-3.45719
-3.45709
-3.18462
-3.18454
-2.91845
-2.91837
-2.66154
-2.66147
-2.41634
-2.41627
-2.18482
-2.18477
-1.96844
-1.96839
-1.76811
-1.76807
-1.58427
-1.58424
-1.41693
-1.4169
-1.2657
-1.26568
-1.12996
-1.12994
-1.00883
-1.00882
-0.901329
-0.901314
-0.806362
-0.80635
-0.722821
-0.722812
-0.649602
-0.649595
-0.585635
-0.58563
-0.529909
-0.529905
-0.481481
-0.481479
-0.439485
-0.439484
-0.403135
-0.403135
-0.371721
-0.371722
-0.344611
-0.344612
-0.321243
-0.321245
-0.301121
-0.301124
-0.28381
-0.283814
-0.268928
-0.268933
-0.256144
-0.256148
-0.245167
-0.245172
-0.235746
-0.235752
-0.227665
-0.227671
-0.220735
-0.220741
-0.214795
-0.214801
-0.209703
-0.209709
-3.47638
-3.47622
-3.30758
-3.30742
-3.1306
-3.13046
-2.94714
-2.947
-2.75915
-2.75902
-2.56881
-2.5687
-2.37841
-2.37831
-2.19025
-2.19015
-2.00649
-2.0064
-1.82912
-1.82904
-1.65984
-1.65977
-1.50001
-1.49995
-1.35063
-1.35057
-1.21233
-1.21228
-1.08541
-1.08537
-0.969882
-0.969846
-0.865482
-0.865452
-0.771769
-0.771743
-0.688148
-0.688127
-0.61393
-0.613912
-0.548367
-0.548353
-0.490693
-0.490682
-0.440145
-0.440136
-0.395984
-0.395978
-0.357513
-0.357508
-0.324079
-0.324077
-0.295087
-0.295086
-0.269991
-0.269992
-0.248304
-0.248305
-0.229588
-0.22959
-0.213456
-0.213459
-0.199564
-0.199568
-0.187613
-0.187618
-0.177339
-0.177344
-0.168513
-0.168519
-0.160935
-0.160941
-0.154432
-0.154438
-0.148853
-0.148859
-0.144069
-0.144075
-0.139967
-0.139974
-0.136452
-0.136459
-1.8827
-1.88251
-1.7907
-1.79052
-1.69425
-1.69408
-1.59426
-1.5941
-1.49181
-1.49166
-1.38807
-1.38794
-1.28431
-1.28419
-1.18176
-1.18164
-1.08161
-1.08151
-0.984945
-0.984855
-0.892689
-0.892608
-0.805582
-0.805511
-0.724168
-0.724106
-0.648796
-0.648741
-0.579627
-0.57958
-0.516662
-0.516622
-0.459765
-0.459731
-0.408691
-0.408663
-0.363118
-0.363094
-0.32267
-0.32265
-0.286939
-0.286923
-0.255507
-0.255494
-0.227958
-0.227948
-0.20389
-0.203883
-0.182924
-0.182919
-0.164703
-0.1647
-0.148902
-0.148901
-0.135225
-0.135225
-0.123405
-0.123407
-0.113205
-0.113208
-0.104413
-0.104417
-0.0968423
-0.0968466
-0.0903291
-0.0903341
-0.0847299
-0.0847355
-0.0799198
-0.0799259
-0.0757897
-0.0757962
-0.0722453
-0.0722522
-0.0692048
-0.069212
-0.0665974
-0.0666049
-0.0643623
-0.06437
-0.0624466
-0.0624545
-0.276834
-0.276628
-0.262241
-0.262045
-0.246941
-0.246757
-0.23108
-0.230908
-0.214829
-0.214669
-0.198374
-0.198226
-0.181914
-0.181779
-0.165647
-0.165523
-0.149761
-0.149649
-0.134428
-0.134327
-0.119793
-0.119704
-0.105976
-0.105897
-0.0930617
-0.0929923
-0.0811056
-0.0810451
-0.0701337
-0.0700814
-0.0601458
-0.060101
-0.0511204
-0.0510823
-0.0430189
-0.0429868
-0.0357898
-0.0357631
-0.0293736
-0.0293517
-0.0237057
-0.023688
-0.0187198
-0.0187058
-0.0143498
-0.0143391
-0.0105321
-0.0105242
-0.00720621
-0.00720083
-0.0043159
-0.00431268
-0.00180947
-0.00180812
0.000360036
0.00035977
0.00223491
0.00223325
0.00385292
0.00385005
0.00524759
0.00524368
0.0064485
0.0064437
0.00748167
0.00747609
0.00836984
0.0083636
0.00913286
0.00912605
0.00978799
0.0097807
0.0103502
0.0103425
0.0108325
0.0108245
0.0112461
0.0112377
0.0116007
0.011592
0.0119046
0.0118957
1.33082
1.33104
1.26791
1.26813
1.20196
1.20216
1.13359
1.13378
1.06354
1.06371
0.99261
0.992772
0.921658
0.921807
0.851537
0.851672
0.78306
0.783182
0.716964
0.717074
0.653883
0.65398
0.594322
0.594408
0.538654
0.53873
0.487116
0.487183
0.439821
0.439878
0.396768
0.396817
0.357863
0.357905
0.322941
0.322976
0.29178
0.291809
0.264122
0.264146
0.23969
0.23971
0.218198
0.218213
0.199361
0.199373
0.182905
0.182913
0.168568
0.168574
0.156109
0.156113
0.145305
0.145307
0.135953
0.135953
0.127872
0.12787
0.120897
0.120894
0.114885
0.114881
0.109709
0.109703
0.105255
0.105249
0.101426
0.10142
0.0981374
0.09813
0.0953134
0.0953054
0.0928899
0.0928814
0.0908109
0.090802
0.0890281
0.0890189
0.0874997
0.0874902
0.0861899
0.0861801
2.92986
2.93011
2.78987
2.7901
2.6431
2.64332
2.49095
2.49115
2.33505
2.33524
2.1772
2.17737
2.0193
2.01946
1.86325
1.86339
1.71085
1.71098
1.56376
1.56388
1.42337
1.42348
1.29082
1.29092
1.16694
1.16702
1.05224
1.05231
0.946989
0.947051
0.851176
0.851229
0.764596
0.764641
0.686878
0.686916
0.617529
0.617561
0.555979
0.556005
0.501607
0.501628
0.453777
0.453793
0.411856
0.411869
0.375233
0.375242
0.343328
0.343334
0.315601
0.315605
0.291557
0.291558
0.270745
0.270744
0.252759
0.252757
0.237238
0.237234
0.223859
0.223854
0.212338
0.212332
0.202427
0.20242
0.193907
0.193899
0.186587
0.186579
0.180303
0.180294
0.174909
0.1749
0.170282
0.170273
0.166315
0.166305
0.162913
0.162903
0.159998
0.159988
4.50996
4.51022
4.2938
4.29404
4.06716
4.0674
3.83222
3.83244
3.59149
3.59169
3.34775
3.34794
3.10393
3.1041
2.86297
2.86312
2.62765
2.62779
2.40052
2.40064
2.18374
2.18386
1.97907
1.97917
1.78777
1.78786
1.61067
1.61074
1.44814
1.44821
1.30019
1.30025
1.1665
1.16655
1.04649
1.04653
0.939411
0.939445
0.844369
0.844396
0.760411
0.760433
0.686555
0.686573
0.621824
0.621837
0.565273
0.565282
0.516007
0.516013
0.473193
0.473197
0.436066
0.436067
0.403929
0.403929
0.376157
0.376155
0.35219
0.352186
0.331531
0.331526
0.313742
0.313735
0.298437
0.29843
0.285281
0.285273
0.273979
0.27397
0.264274
0.264265
0.255946
0.255936
0.248802
0.248791
0.242675
0.242664
0.237423
0.237412
0.232922
0.232911
6.06091
6.06118
5.76997
5.77023
5.46495
5.4652
5.14875
5.14898
4.82476
4.82497
4.49671
4.49691
4.16856
4.16875
3.84426
3.84442
3.52755
3.5277
3.22186
3.222
2.93011
2.93023
2.65465
2.65475
2.39718
2.39728
2.15883
2.15891
1.94009
1.94016
1.74097
1.74103
1.56104
1.56109
1.39952
1.39956
1.2554
1.25544
1.12749
1.12751
1.01449
1.01451
0.915089
0.915107
0.827969
0.827983
0.751858
0.751869
0.685553
0.68556
0.627931
0.627935
0.577962
0.577964
0.534711
0.53471
0.497333
0.49733
0.465076
0.465072
0.437271
0.437266
0.41333
0.413323
0.392732
0.392725
0.375026
0.375017
0.359814
0.359805
0.346753
0.346743
0.335544
0.335534
0.325929
0.325918
0.317683
0.317672
0.310615
0.310603
0.304557
0.304545
7.57266
7.57294
7.20885
7.20912
6.82744
6.82769
6.43204
6.43227
6.02689
6.02711
5.61668
5.61688
5.20634
5.20653
4.8008
4.80097
4.40477
4.40492
4.02251
4.02265
3.65769
3.65781
3.31323
3.31333
2.99128
2.99137
2.69322
2.6933
2.41969
2.41976
2.1707
2.17076
1.9457
1.94575
1.74373
1.74377
1.56351
1.56355
1.40356
1.40359
1.26226
1.26228
1.13796
1.13798
1.02902
1.02903
0.933845
0.933855
0.850932
0.850939
0.778877
0.778881
0.716393
0.716395
0.662308
0.662307
0.615568
0.615565
0.575232
0.575227
0.540463
0.540457
0.510525
0.510518
0.484768
0.48476
0.462626
0.462618
0.443605
0.443595
0.427272
0.427262
0.413256
0.413245
0.401232
0.401221
0.390922
0.39091
0.382083
0.382071
0.374507
0.374495
9.03545
9.03574
8.60114
8.60141
8.14581
8.14607
7.67379
7.67403
7.19013
7.19035
6.70042
6.70063
6.21056
6.21075
5.72644
5.72661
5.25366
5.25382
4.79733
4.79747
4.36181
4.36193
3.95059
3.9507
3.56625
3.56635
3.21043
3.21052
2.8839
2.88397
2.58665
2.58672
2.31805
2.31811
2.07694
2.07699
1.8618
1.86184
1.67085
1.67088
1.50217
1.5022
1.35379
1.35381
1.22373
1.22375
1.11012
1.11013
1.01114
1.01114
0.925118
0.925122
0.850525
0.850526
0.785959
0.785958
0.730161
0.730158
0.682008
0.682003
0.640502
0.640496
0.604762
0.604754
0.574014
0.574005
0.547582
0.547572
0.524874
0.524863
0.505376
0.505365
0.488644
0.488632
0.47429
0.474278
0.461981
0.461969
0.451429
0.451417
0.442386
0.442373
10.4398
10.4401
9.93783
9.93811
9.41156
9.41182
8.86598
8.86623
8.30696
8.30719
7.74096
7.74117
7.17477
7.17496
6.61521
6.61538
6.06877
6.06893
5.54133
5.54147
5.03795
5.03807
4.56266
4.56277
4.11843
4.11853
3.70717
3.70726
3.32976
3.32983
2.9862
2.98626
2.67574
2.6758
2.39707
2.39711
2.1484
2.14844
1.9277
1.92773
1.73273
1.73276
1.56123
1.56125
1.41091
1.41093
1.27959
1.2796
1.16519
1.16519
1.06577
1.06577
0.979551
0.979552
0.904924
0.904923
0.840433
0.84043
0.784777
0.784772
0.736803
0.736797
0.695494
0.695487
0.659955
0.659947
0.629404
0.629395
0.603158
0.603148
0.580623
0.580612
0.561283
0.561271
0.544693
0.544681
0.530466
0.530454
0.51827
0.518257
0.507818
0.507804
11.7767
11.777
11.2103
11.2106
10.6165
10.6168
10.0009
10.0012
9.37019
9.37042
8.73157
8.73178
8.09274
8.09294
7.46139
7.46157
6.84484
6.845
6.24974
6.24988
5.68177
5.6819
5.1455
5.14562
4.64428
4.64439
4.18026
4.18035
3.75443
3.7545
3.36679
3.36685
3.0165
3.01656
2.70207
2.70212
2.42151
2.42154
2.17249
2.17252
1.95251
1.95253
1.759
1.75902
1.5894
1.58941
1.44123
1.44124
1.31215
1.31216
1.19997
1.19998
1.10269
1.1027
1.01849
1.01849
0.945728
0.945726
0.882932
0.882928
0.828803
0.828798
0.782195
0.782188
0.742096
0.742088
0.707626
0.707617
0.678012
0.678002
0.652586
0.652575
0.630765
0.630754
0.612046
0.612034
0.595994
0.595982
0.582234
0.582221
0.57044
0.570427
13.0374
13.0377
12.4103
12.4106
11.7529
11.7531
11.0713
11.0715
10.3729
10.3732
9.66587
9.66608
8.95856
8.95876
8.25953
8.25971
7.57689
7.57705
6.91799
6.91814
6.28914
6.28927
5.69539
5.69551
5.14045
5.14055
4.62668
4.62677
4.1552
4.15527
3.72601
3.72607
3.33818
3.33823
2.99004
2.99009
2.6794
2.67944
2.40368
2.40371
2.16013
2.16015
1.94587
1.94589
1.75809
1.75811
1.59404
1.59405
1.45112
1.45113
1.32692
1.32693
1.21922
1.21922
1.12599
1.12599
1.04542
1.04542
0.975897
0.975892
0.915966
0.91596
0.864361
0.864353
0.819964
0.819956
0.781798
0.781789
0.74901
0.749
0.720858
0.720848
0.696698
0.696687
0.675973
0.675961
0.658201
0.658188
0.642965
0.642952
0.629907
0.629894
14.2138
14.2141
13.5301
13.5304
12.8133
12.8135
12.0702
12.0704
11.3088
11.309
10.5378
10.538
9.76665
9.76684
9.00449
9.00467
8.26021
8.26037
7.54181
7.54195
6.85617
6.8563
6.2088
6.20892
5.60375
5.60384
5.04358
5.04367
4.52953
4.5296
4.06158
4.06164
3.63872
3.63878
3.25915
3.25919
2.92046
2.92049
2.61984
2.61987
2.35429
2.35432
2.12069
2.12071
1.91595
1.91597
1.73709
1.7371
1.58126
1.58127
1.44585
1.44585
1.32842
1.32842
1.22677
1.22677
1.13893
1.13893
1.06312
1.06312
0.997781
0.997775
0.941515
0.941508
0.89311
0.893101
0.851497
0.851488
0.815749
0.815739
0.785054
0.785044
0.758713
0.758701
0.736116
0.736104
0.716738
0.716726
0.700127
0.700114
0.68589
0.685877
19.9391
20
19.9391
20
18.9818
19.0397
18.9818
19.0397
17.978
18.0329
17.978
18.0329
16.9375
16.9893
16.9375
16.9893
15.8713
15.9198
15.8713
15.9198
14.7918
14.8371
14.7918
14.8371
13.712
13.7539
13.712
13.7539
12.6448
12.6835
12.6448
12.6835
11.6026
11.6381
11.6026
11.6381
10.5967
10.6292
10.5967
10.6292
9.63661
9.66618
9.63662
9.66618
8.73014
8.75695
8.73014
8.75695
7.88291
7.90714
7.88291
7.90714
7.09854
7.12039
7.09854
7.12039
6.37873
6.3984
6.37873
6.3984
5.72349
5.74116
5.72349
5.74116
5.13138
5.14726
5.13139
5.14726
4.59989
4.61415
4.59989
4.61415
4.12563
4.13845
4.12563
4.13845
3.7047
3.71625
3.7047
3.71625
3.33286
3.34328
3.33286
3.34328
3.00576
3.01519
3.00576
3.01519
2.71908
2.72763
2.71908
2.72763
2.46862
2.47641
2.46862
2.47641
2.25043
2.25756
2.25043
2.25756
2.06081
2.06736
2.06081
2.06736
1.89638
1.90243
1.89638
1.90243
1.75405
1.75967
1.75405
1.75967
1.63105
1.6363
1.63105
1.6363
1.5249
1.52983
1.5249
1.52983
1.43341
1.43805
1.43341
1.43805
1.35462
1.35903
1.35462
1.35903
1.28684
1.29104
1.28684
1.29104
1.22857
1.2326
1.22857
1.2326
1.17852
1.18239
1.17852
1.18239
1.13554
1.13928
1.13554
1.13928
1.09865
1.10228
1.09865
1.10228
1.06701
1.07054
1.06701
1.07054
1.03988
1.04333
1.03988
1.04333
1.01662
1.02
1.01662
1.02
0.996681
1
0.996681
1
19.7569
19.7569
18.8083
18.8083
17.8137
17.8137
16.7826
16.7826
15.7261
15.7261
14.6564
14.6565
13.5864
13.5864
12.5289
12.5289
11.4962
11.4962
10.4994
10.4994
9.54811
9.54811
8.64987
8.64987
7.81034
7.81035
7.03311
7.03311
6.31985
6.31985
5.67056
5.67057
5.08385
5.08385
4.55718
4.55718
4.08724
4.08724
3.67014
3.67014
3.30168
3.30168
2.97756
2.97756
2.69348
2.69348
2.4453
2.4453
2.22909
2.22909
2.0412
2.0412
1.87826
1.87826
1.73723
1.73723
1.61535
1.61535
1.51016
1.51016
1.4195
1.4195
1.34143
1.34143
1.27427
1.27427
1.21653
1.21653
1.16693
1.16693
1.12434
1.12434
1.08779
1.08779
1.05644
1.05643
1.02955
1.02955
1.0065
1.0065
0.986746
0.986745
19.4545
19.4545
18.5203
18.5203
17.5408
17.5409
16.5255
16.5255
15.4851
15.4851
14.4317
14.4317
13.378
13.378
12.3366
12.3366
11.3196
11.3196
10.338
10.338
9.40119
9.4012
8.51664
8.51665
7.6899
7.68991
6.92451
6.92452
6.22212
6.22212
5.58272
5.58273
5.00494
5.00495
4.4863
4.48631
4.02352
4.02352
3.61277
3.61277
3.24993
3.24993
2.93074
2.93074
2.65099
2.65099
2.40659
2.40659
2.19368
2.19368
2.00865
2.00865
1.84819
1.84819
1.70931
1.70931
1.58928
1.58928
1.4857
1.4857
1.39642
1.39642
1.31954
1.31954
1.2534
1.2534
1.19654
1.19654
1.1477
1.1477
1.10576
1.10576
1.06976
1.06976
1.03889
1.03889
1.01241
1.01241
0.989713
0.989712
0.97026
0.970259
19.0337
19.0337
18.1195
18.1196
17.1612
17.1612
16.1677
16.1677
15.1497
15.1497
14.119
14.119
13.088
13.088
12.069
12.069
11.0739
11.0739
10.1134
10.1135
9.19677
9.19679
8.33126
8.33128
7.52232
7.52234
6.77341
6.77342
6.08613
6.08614
5.4605
5.46051
4.89516
4.89517
4.38769
4.38769
3.93486
3.93487
3.53296
3.53296
3.17793
3.17793
2.86561
2.86562
2.59188
2.59189
2.35275
2.35275
2.14442
2.14442
1.96337
1.96337
1.80637
1.80637
1.67047
1.67047
1.55303
1.55303
1.45168
1.45168
1.36432
1.36432
1.2891
1.2891
1.22438
1.22438
1.16875
1.16874
1.12095
1.12095
1.07991
1.07991
1.0447
1.04469
1.01449
1.01448
0.988578
0.988576
0.966369
0.966367
0.947335
0.947332
18.497
18.4971
17.6085
17.6086
16.677
16.6771
15.7114
15.7115
14.722
14.7221
13.7202
13.7203
12.7181
12.7182
11.7277
11.7278
10.7606
10.7606
9.82705
9.82708
8.93609
8.93613
8.09487
8.0949
7.30863
7.30865
6.58072
6.58075
5.91273
5.91275
5.30466
5.30468
4.75518
4.75519
4.26194
4.26195
3.82183
3.82184
3.4312
3.43121
3.08613
3.08613
2.78258
2.78258
2.51653
2.51653
2.2841
2.2841
2.08161
2.08162
1.90565
1.90565
1.75305
1.75305
1.62097
1.62097
1.50682
1.50682
1.40832
1.40832
1.32341
1.32341
1.25029
1.25029
1.18739
1.18739
1.13332
1.13332
1.08687
1.08686
1.04698
1.04698
1.01275
1.01275
0.983386
0.983383
0.958206
0.958203
0.93662
0.936617
0.91812
0.918117
17.8477
17.8478
16.9903
16.9904
16.0914
16.0915
15.1595
15.1596
14.2046
14.2047
13.2378
13.2379
12.2707
12.2708
11.3149
11.315
10.3815
10.3816
9.4806
9.48065
8.62076
8.62081
7.80891
7.80896
7.05013
7.05017
6.34765
6.34768
5.70299
5.70302
5.11615
5.11617
4.58586
4.58588
4.10985
4.10987
3.68511
3.68512
3.30812
3.30813
2.9751
2.97511
2.68215
2.68216
2.42539
2.4254
2.20108
2.20109
2.00567
2.00567
1.83585
1.83585
1.68858
1.68858
1.56111
1.56111
1.45095
1.45095
1.35589
1.35589
1.27394
1.27394
1.20338
1.20338
1.14268
1.14268
1.09049
1.09049
1.04566
1.04566
1.00717
1.00717
0.974136
0.974132
0.945798
0.945794
0.921497
0.921493
0.900665
0.90066
0.882811
0.882806
17.0899
17.09
16.2686
16.2688
15.4077
15.4078
14.5152
14.5153
13.6006
13.6007
12.6747
12.6748
11.7484
11.7485
10.833
10.8331
9.93906
9.93914
9.07621
9.07628
8.25269
8.25276
7.47515
7.4752
6.74842
6.74847
6.07561
6.07566
5.45819
5.45823
4.89614
4.89617
4.38825
4.38828
3.93235
3.93238
3.52555
3.52557
3.16449
3.16451
2.84554
2.84555
2.56497
2.56498
2.31906
2.31906
2.10422
2.10423
1.91706
1.91707
1.75442
1.75442
1.61337
1.61337
1.49129
1.49129
1.38578
1.38578
1.29473
1.29473
1.21625
1.21625
1.14867
1.14867
1.09053
1.09053
1.04055
1.04055
0.997614
0.997609
0.960747
0.960742
0.929109
0.929103
0.901968
0.901962
0.878694
0.878688
0.858742
0.858735
0.841642
0.841635
16.228
16.2282
15.448
15.4482
14.6302
14.6304
13.7825
13.7826
12.9138
12.914
12.0343
12.0344
11.1545
11.1546
10.285
10.2851
9.43592
9.43603
8.61635
8.61645
7.83415
7.83424
7.09561
7.09568
6.40534
6.40541
5.76629
5.76634
5.17984
5.17988
4.64598
4.64603
4.16358
4.16361
3.73055
3.73058
3.34415
3.34418
3.00121
3.00123
2.69826
2.69827
2.43176
2.43177
2.19818
2.19819
1.99413
1.99413
1.81636
1.81636
1.66187
1.66187
1.5279
1.5279
1.41194
1.41194
1.31173
1.31173
1.22525
1.22524
1.1507
1.1507
1.08651
1.08651
1.03129
1.03128
0.983817
0.983811
0.943033
0.943027
0.908016
0.908009
0.877965
0.877957
0.852186
0.852178
0.830079
0.830071
0.811128
0.81112
0.794886
0.794877
15.2674
15.2676
14.5333
14.5335
13.7636
13.7639
12.9658
12.966
12.1483
12.1485
11.3206
11.3207
10.4926
10.4927
9.67428
9.67442
8.87516
8.87529
8.10384
8.10396
7.36769
7.3678
6.67263
6.67272
6.023
6.02308
5.42157
5.42164
4.86965
4.86971
4.36722
4.36728
3.91322
3.91326
3.50568
3.50572
3.14204
3.14207
2.81928
2.8193
2.53417
2.53419
2.28336
2.28337
2.06353
2.06355
1.87149
1.8715
1.70419
1.70419
1.5588
1.5588
1.43271
1.43272
1.32358
1.32358
1.22927
1.22927
1.14788
1.14787
1.07772
1.07772
1.01731
1.0173
0.965339
0.965332
0.920661
0.920654
0.882279
0.882271
0.849323
0.849314
0.821041
0.821032
0.79678
0.79677
0.775975
0.775965
0.758139
0.758129
0.742854
0.742843
0
1.50384
0
1.50384
0
1.43207
0
1.43207
0
1.35682
0
1.35682
0
1.27882
0
1.27882
0
1.19889
0
1.19889
0
1.11796
0
1.11796
0
1.03701
0
1.03701
0
0.957007
0
0.957006
0
0.878877
0
0.878877
0
0.803465
0
0.803465
0
0.731492
0
0.731491
0
0.663535
0
0.663535
0
0.600021
0
0.600021
0
0.541219
0
0.541219
0
0.487257
0
0.487257
0
0.438135
0
0.438135
0
0.393747
0
0.393747
0
0.353902
0
0.353902
0
0.318348
0
0.318348
0
0.286792
0
0.286792
0
0.258917
0
0.258917
0
0.234395
0
0.234395
0
0.212903
0
0.212903
0
0.194127
0